288 atoms
2 atom types
0.0 20.0 xlo xhi
0.0 20.0 ylo yhi
0.0 20.0 zlo zhi

Masses

1 15.9994
2 1.008

Atoms

1 1 5.000000 5.000000 5.000000
2 2 4.690000 5.510000 5.240000
3 2 5.500000 5.880000 4.710000
4 1 5.300000 3.620000 5.270000
5 2 6.330000 3.550000 5.080000
6 2 4.910000 3.250000 5.960000
7 1 4.460000 6.040000 4.840000
8 2 3.570000 6.270000 4.440000
9 2 4.790000 6.900000 4.430000
10 1 5.000000 4.400000 6.250000
11 2 4.260000 4.480000 6.710000
12 2 5.760000 4.970000 6.690000
13 1 5.500000 6.430000 6.050000
14 2 5.300000 7.350000 6.120000
15 2 6.440000 6.160000 6.460000
16 1 6.440000 4.010000 3.880000
17 2 6.350000 3.450000 2.980000
18 2 6.620000 3.020000 4.480000
19 1 3.620000 4.990000 5.150000
20 2 3.120000 5.780000 5.340000
21 2 3.810000 4.700000 4.220000
22 1 2.710000 6.080000 4.100000
23 2 3.020000 6.880000 4.660000
24 2 2.640000 5.360000 4.580000
25 1 5.800000 2.200000 5.880000
26 2 6.630000 1.870000 6.240000
27 2 5.310000 2.070000 6.490000
28 1 3.890000 6.830000 3.770000
29 2 3.520000 7.810000 3.950000
30 2 4.690000 6.800000 3.380000
31 1 6.100000 2.900000 2.970000
32 2 6.800000 2.240000 2.760000
33 2 6.240000 2.820000 3.890000
34 1 5.000000 5.700000 3.290000
35 2 4.890000 4.780000 2.790000
36 2 4.940000 6.390000 2.
