LAMMPS data file via write_data, version 23 Jun 2022, timestep = 100000

288 atoms
2 atom types

0.9492202546513404 19.10928220341379 xlo xhi
0.9492202546513404 19.10928220341379 ylo yhi
0.2959221355782713 18.455984084340315 zlo zhi

Masses

1 15.999 # O
2 1.00784 # H

Atoms # atomic

1 1 18.878074128911706 1.0072582888878234 18.36100681890786 -1 0 -1
2 2 18.28122803593899 11.717310848976963 14.244375088514808 -2 0 -1
3 2 17.47748392071284 14.305166355209346 8.515447820682114 -1 -1 -1
4 1 3.9362558899388236 3.9412399378874166 17.95168740767489 0 0 -1
5 2 13.57902978672636 6.619719421063846 15.811778590367716 0 0 -1
6 2 16.59416846692304 4.809711361669766 13.173637748339724 -1 0 -1
7 1 3.6333406418533483 0.9967421302611689 3.426389076765388 0 0 0
8 2 11.646879237507633 14.289981243752457 0.8143340398739576 -1 -1 0
9 2 11.56456295761808 2.9529588570973972 13.008429362820577 -1 0 -1
10 1 1.226813716265657 4.182923113475363 3.504675677920791 0 0 0
11 2 18.138127335712863 14.45139034462561 17.510105064246538 -1 -1 -1
12 2 16.130295849362433 1.0096401797640309 13.010220658691605 -1 0 -1
13 1 2.215876849113945 2.720331087114493 1.5733821111790478 0 0 0
14 2 15.614092365596864 11.66783136049739 2.0129950147088267 -1 -1 0
15 2 7.850784468308359 7.267766227812912 6.88585740282189 0 0 0
16 1 5.5949018856716926 5.196736133456248 1.4956006490945013 0 0 0
17 2 3.379246446314727 16.379861830807442 1.0743206201892193 0 0 -1
18 2 6.157121744574324 12.79416529788656 11.56443222619808 0 0 -1
19 1 5.27295863854308 2.3656256982447914 4.637141465527145 0 0 0
20 2 18.685451328113064 4.887881448239639 0.8727009365752272 0 0 0
21 2 9.552862189866483 16.288851746713792 3.6677962850884844 -1 0 0
22 1 2.774214553115235 5.43782413958043 4.860016925698879 0 0 0
23 2 11.177688119863268 18.09876208491625 0.8231750839563637 0 -1 0
24 2 2.011433341326276 3.310116413148581 17.164280195206246 0 0 -1
25 1 3.527805993622738 1.3699360678998977 17.807849880739234 0 0 -1
26 2 10.798774645423459 11.579581162698599 1.6051654964770738 -1 0 0
27 2 8.832353826162695 16.255674625469624 6.765739299093596 0 0 0
28 1 18.944635518140565 4.084033911997937 18.262459359774205 -1 0 -1
29 2 8.948688596183588 14.17663598008652 7.776560142790867 0 -1 0
30 2 15.569058957484371 16.723874699724895 14.266837081128914 -1 0 -1
31 1 18.923731076484692 0.959438063759213 3.4385281221582797 -1 0 0
32 2 15.58224791552765 17.70732523454608 4.693016542747184 -1 -1 0
33 2 10.927516883717225 7.965584536704426 7.313377995211528 -1 -1 0
34 1 3.8246237394847715 3.887113979831385 3.5546022640965886 0 0 0
35 2 4.913354610790657 18.16337473614088 5.120364739183794 0 0 0
36 2 8.34920104478853 5.986253994010496 17.346017184334556 0 0 -1
37 1 5.086504623406592 2.1410042644092266 1.6008189551446246 0 0 0
38 2 1.6049539923524885 10.356277487532452 9.927727749032284 0 0 0
39 2 13.828261155344594 18.71307092649678 5.594429882562305 0 -1 0
40 1 2.624611290725433 5.432089873132341 1.9036471465116895 0 0 0
41 2 9.52040499764092 6.830582036128549 5.503783630701769 0 0 -1
42 2 14.722384587652794 8.119054158411963 10.075858703089756 -1 0 -1
43 1 2.087125000383546 2.477051115037286 5.0963331805337155 0 0 0
44 2 6.153375074313999 10.354978224527859 3.4716817455899482 0 0 0
45 2 7.299581171025387 16.73913524579331 0.6156757911069266 0 -1 0
46 1 5.976371179494469 5.5380528367891 4.396384152473934 0 0 0
47 2 12.552606889918648 8.008952141598037 11.52762127317315 -1 -1 0
48 2 7.612843232487619 17.01357693191513 16.42185735476461 0 -1 -1
49 1 7.162957267615284 19.033272748150512 0.31089141612544613 0 -1 0
50 2 15.584433832774828 16.634024810365723 6.249670517740463 0 -1 -1
51 2 4.663149063687403 13.955010593881878 5.202253125321088 0 0 0
52 1 10.475968829424422 3.6551671926887095 18.33343601432145 0 0 -1
53 2 18.70142737184019 6.097005926560431 12.556753673524781 -1 0 -1
54 2 10.515881891538953 18.17819191338097 9.066763992816275 0 0 0
55 1 10.300125167129949 18.493890994172922 3.041990174862768 0 -1 0
56 2 10.895005082042289 12.221316805366769 4.515958650869601 0 0 0
57 2 4.722533811914934 2.1087636793221405 10.471254634936521 0 0 0
58 1 7.007715605527484 3.664706488878339 3.0634802217581565 0 0 0
59 2 1.4996227920334406 7.816252103921817 9.014589790303441 1 -1 0
60 2 12.72054579356055 7.6918049120443355 2.684148020476712 0 0 0
61 1 8.798576829825446 2.0471153624305334 2.1059778671806315 0 0 0
62 2 7.137236553319781 4.848492279000476 11.768657064491183 0 -1 -1
63 2 18.122632509886493 3.4875457078646916 12.592263663363786 -1 -1 -1
64 1 11.54860742924974 5.094440580520648 1.877488701833644 0 0 0
65 2 13.378510591041127 9.944258034383365 15.996218950322241 0 0 -1
66 2 18.620144146309713 4.40056100547878 4.160084467879972 -1 0 0
67 1 11.413804549291628 1.9403342547899263 4.723840082970029 0 0 0
68 2 2.229335496212017 10.588232192424542 17.51221697363384 0 0 0
69 2 13.249234849610334 16.50850323129857 14.86663684367701 0 0 -1
70 1 8.55565457390529 5.1781544541979105 4.8482022643513085 0 0 0
71 2 14.20436114911317 4.159934606564073 4.3126511385929565 0 1 0
72 2 3.5566914640298144 7.631718540359265 5.550657942426447 1 -1 0
73 1 10.196141373015456 18.887679968187943 18.327714950692233 0 -1 -1
74 2 3.0612427660118673 4.108980496605195 13.51372647801608 1 -1 -1
75 2 14.555234304154851 13.80283089132668 11.57183795695087 0 -1 -1
76 1 7.178025909815132 3.723361908173812 0.32884796746276124 0 0 0
77 2 8.850448489655653 3.0922116811008795 13.757762851320251 0 -1 -1
78 2 11.089695905208313 5.34356105122559 10.897005684567171 0 0 -1
79 1 6.836080650639112 1.0390645343749667 2.8923042207107628 0 0 0
80 2 18.254687569293377 17.548402414115763 6.899376823418291 -1 -1 0
81 2 16.402287135958915 13.920668271381505 3.6853709490513147 -1 0 0
82 1 10.07192617092076 3.810032586445931 3.4409113800245725 0 0 0
83 2 9.352720986092269 12.597409684138256 15.13693640550189 0 0 0
84 2 1.3497872662682617 2.81257698430759 13.341302089352972 0 0 0
85 1 11.390339005299856 1.7781535616221205 1.8369133953119765 0 0 0
86 2 4.619344659545913 8.567807002038155 8.167966514393317 0 0 0
87 2 1.6615916228667285 6.567493974271316 2.7261387901589313 0 -1 0
88 1 8.69164927879326 5.087619025187107 1.8307159700766484 0 0 0
89 2 15.806316434212837 10.514316608973859 4.191228932277865 0 0 0
90 2 7.743207256193534 16.29354167456215 11.86138390553476 0 -1 -2
91 1 8.765292311239872 1.5586393095604452 4.7487561129190805 0 0 0
92 2 18.23986151124286 1.9200109481064573 14.065548925121892 0 0 -1
93 2 6.015460795501803 2.8882822089135756 17.57612306965462 0 0 0
94 1 11.470880945617258 5.472912182457604 4.67984507774645 0 0 0
95 2 16.627024753324523 4.706084643116309 14.623342170867298 1 0 0
96 2 2.935964830644962 5.581072779190028 5.815096868629399 1 0 0
97 1 13.204598147650621 19.055120739827892 0.43575657489920855 0 -1 0
98 2 15.289068234338718 6.370493249492393 3.77269204288116 0 0 0
99 2 14.90521188810978 13.984849707911769 0.8474623960579996 0 -1 1
100 1 15.672591442509557 4.497196521883616 18.280398957106648 0 0 -1
101 2 11.334783190685764 10.92353069034513 14.16038149115947 0 -1 0
102 2 9.615103762495691 3.8736963761600944 18.29428862906711 0 0 -1
103 1 15.905215942808795 18.960082434084043 3.2722112425112577 0 -1 0
104 2 1.8429747754796497 8.159206999649241 1.6209565175854843 1 -1 0
105 2 4.005227040899285 13.322089204589293 7.057346798692278 0 0 0
106 1 12.524644816500894 3.512427363357526 3.286354826246779 0 0 0
107 2 4.186986555839716 12.74374862470537 18.215250704367193 1 -1 -1
108 2 6.3937002610315785 9.747558578196553 8.229989779190698 1 0 -1
109 1 14.848635819169722 2.316812728986087 1.9780990688106823 0 0 0
110 2 10.529078415839372 1.6187626383502045 9.915921263693473 1 0 -1
111 2 8.52116792571509 11.21586010628597 10.218847297626473 1 -1 0
112 1 18.072721615316258 5.566787881793589 1.3435038018465484 0 0 0
113 2 9.03443846141916 14.858308952958527 2.554492218703032 1 0 0
114 2 18.173734945965535 5.3599682704555205 5.699919471289649 1 0 0
115 1 17.43402058999771 2.4052082079501336 4.574303033519936 0 0 0
116 2 8.986472615264136 17.12201332093574 16.01957004903359 1 0 -1
117 2 5.387457901697347 4.913925726974027 4.946790139640105 1 -1 0
118 1 14.253085310196996 5.13757608407797 4.613543776045076 0 0 0
119 2 2.293645418087354 15.004849476034838 14.442693717305895 1 -1 0
120 2 18.47270322603547 3.6820613524009818 15.683975931098788 0 0 0
121 1 16.238906967902786 1.1060831719263626 18.374690491884124 0 0 -1
122 2 4.596287739008589 16.796046600092687 11.994891060896817 1 0 -1
123 2 1.8393255530064854 9.04015392521944 14.160212916639834 0 0 0
124 1 12.999628006127526 3.829329551692091 0.5648735188900416 0 0 0
125 2 4.436575875190828 4.288155773687214 6.789688631453379 0 0 -1
126 2 6.696743973200239 1.5158868012878002 7.046203898968047 0 1 -1
127 1 12.923434232905688 18.68307095796475 3.553350598133142 0 -1 0
128 2 2.8761477979854044 5.324822401445428 15.095346063940159 1 0 -1
129 2 10.328430591894211 15.597297275560003 16.10991123580188 0 -1 -1
130 1 16.159280829014016 4.367768393997805 3.4064183901218477 0 0 0
131 2 5.352714127895989 11.427891090038637 2.279180863318545 1 -1 0
132 2 2.1894736099122287 18.394737127915025 16.87944780017822 1 -1 -1
133 1 17.474345700934514 2.6743761075696546 1.9248231864498702 0 0 0
134 2 4.984393961684001 8.087789826863174 2.2972304123537395 0 0 1
135 2 17.123427736604256 6.50345610860726 11.545932741268954 1 0 -1
136 1 14.314331338622065 5.351274529085295 1.8158330013156838 0 0 0
137 2 6.235395693897586 3.391962956544972 13.615537787690357 1 1 0
138 2 6.205633089822882 16.60605036433803 5.4606897084181325 0 -1 0
139 1 14.348820112622203 2.344593417656843 4.640412826135725 0 0 0
140 2 3.393489285889561 15.19121920595386 16.009582328664088 0 -1 -1
141 2 1.6655843975548015 16.025821406071607 7.092316109206475 1 -1 0
142 1 17.650514084512647 5.642171024767976 4.930395826754374 0 0 0
143 2 3.579636266992574 12.119943076822057 11.734393213109772 1 0 0
144 2 13.7317399735827 18.69969838764814 11.286866883354406 0 -1 0
145 1 19.08388318346007 7.521745166110596 0.3591376781741952 -1 0 0
146 2 15.028718494384261 5.065845459658151 15.602273708259085 -1 0 -1
147 2 4.388716667516303 2.9988231197457944 9.481969671142705 0 -1 -1
148 1 4.110979880377236 9.775559775441872 18.42722325145143 0 0 -1
149 2 12.738278211581894 15.990671623385985 8.425399999749745 0 1 0
150 2 3.9593385193404838 9.581378622232886 10.350197331982116 1 0 -1
151 1 4.397481367592519 7.0645455631802525 3.2355403826655844 0 0 0
152 2 6.470857149097438 3.0133710798126865 9.887411435088682 0 1 0
153 2 15.201256827824624 13.907601931555867 16.36037332710778 -2 -1 -1
154 1 18.721225357246855 9.84889628497551 3.407990409578446 -1 0 0
155 2 8.986518700536104 10.169065430350544 15.327821155844752 -1 0 -1
156 2 11.2104189026904 1.4943571047634512 13.284223019445928 -1 0 -1
157 1 2.4544661931199054 8.763470191905208 2.15173545287498 0 0 0
158 2 9.06558779216466 17.34645169146899 8.148213032777672 0 0 0
159 2 16.634031724447865 4.518019182129718 8.682394136690727 -1 0 -1
160 1 5.549691915511173 11.516762694202106 1.254747065862801 0 0 0
161 2 9.438316191011861 8.126100174321765 17.367514538045782 0 0 -1
162 2 15.774355904639306 12.347991702444215 7.250975387807566 -1 0 0
163 1 5.99705870418599 8.29634326486957 5.008880455272811 0 0 0
164 2 14.116305256895743 17.685270533256293 9.844540203664554 0 0 0
165 2 10.975279216676201 17.15658258722638 1.9878292325208389 -1 0 0
166 1 2.456939076487381 10.982261966502143 4.78385754607191 0 0 0
167 2 10.377561067534353 16.51318504308899 5.7812828899599005 0 1 0
168 2 18.15675872558962 8.264456069475951 12.18837832179351 -2 0 0
169 1 3.972813134395189 7.107366178050878 18.39283268344105 0 0 -1
170 2 7.424448180813883 14.156039872257637 5.087231839794834 0 0 0
171 2 11.062114667253196 14.349519040993979 13.889008880959558 0 -1 -1
172 1 1.0176861642965878 10.100864285448639 18.315970897276763 0 0 -1
173 2 14.47161857337911 14.13990803479553 14.49121651016482 -1 -1 0
174 2 8.155349678414634 11.019996462460684 17.666561869464857 0 0 -1
175 1 18.94848713348807 6.803247843859835 3.2150968445047683 -1 0 0
176 2 12.155436497173827 5.28343589826696 13.612916131297865 0 0 0
177 2 17.167737053212687 14.079459155863663 10.177990633100066 0 -1 0
178 1 4.415286557742716 10.239158808006202 3.189605803214083 0 0 0
179 2 14.032001164377249 2.1270361464316343 1.428923116293066 0 0 0
180 2 17.855414711463567 11.314573891517567 1.8041068339198834 0 0 0
181 1 5.672392549223131 8.245559661886368 1.4352730554647535 0 0 0
182 2 12.102223531144997 7.7442237495238 13.131364738398034 0 0 0
183 2 12.838576954085934 6.33436550168845 2.8304172892388495 -1 0 0
184 1 2.6189793910602015 11.118170489798892 1.8897163571355096 0 0 0
185 2 6.51447561578912 18.509084651173033 3.6723938683740887 -1 -1 -1
186 2 12.49078711540404 4.403728854035416 15.90268856138014 -1 0 -1
187 1 2.8685555337909774 8.303823717010554 4.665456267785368 0 0 0
188 2 9.646406016519727 9.638433467209788 0.7225856566666591 0 0 1
189 2 17.327549821166585 16.661993789534623 5.597278803802282 -1 0 0
190 1 5.428892307911206 11.483505512227321 4.793663297738684 0 0 0
191 2 2.8000381159737824 11.469723295067416 8.327128180702228 0 0 0
192 2 1.7765789192315116 17.434934089333137 13.230159568881023 0 0 -1
193 1 7.393379253689599 6.60184246056829 0.3893589531135998 0 0 0
194 2 10.812619768885652 6.4812778748007025 6.398138284277232 -1 0 0
195 2 14.45525920725383 4.950662253400673 13.357807475721593 0 0 -1
196 1 10.223112344229744 10.315541386836363 0.5374024608688553 0 0 0
197 2 16.93778538129171 10.551535607704885 5.297605541264591 0 0 0
198 2 6.299377369272834 9.655273351114422 13.185926135768826 0 0 0
199 1 10.07773061733647 6.814847966347699 3.00383813130175 0 0 0
200 2 13.976452310688726 9.395649008123021 11.049019656692309 1 1 0
201 2 6.983202879257655 15.375245370266137 3.7474990623692497 -1 0 0
202 1 7.055471150348049 10.005714801613847 3.563358895314843 0 0 0
203 2 11.076245583363578 7.670815573686766 10.306387132201817 -1 0 0
204 2 2.1043563682156057 9.244377515393516 2.8707633846481553 0 0 0
205 1 8.580522369558002 8.494428755303097 1.9144379617902263 0 0 0
206 2 10.574663339063052 6.719445441867669 3.933555434974432 0 1 0
207 2 11.730563764973601 11.039133944061302 10.277972782786907 0 -1 -1
208 1 11.750068099815593 11.687304890187614 1.8698014315693456 0 0 0
209 2 1.1172706625251816 3.340578717399695 11.573153344413603 1 1 0
210 2 8.909452191667027 9.903339574630676 6.659867437956983 1 0 -1
211 1 11.667416969869025 8.115499139541479 4.952292207012424 0 0 0
212 2 12.636053024253444 18.589182165217423 17.95772399588288 0 0 -1
213 2 10.665471322237938 8.054660882982688 1.843626608328355 1 0 0
214 1 8.658394481810538 11.744672058921637 4.859638053064402 0 0 0
215 2 9.147041155315462 3.8019641195044502 3.7365577242065897 0 1 0
216 2 8.021192410712459 11.013475051057899 11.615945338324112 0 0 0
217 1 10.277967983842027 6.711538902658112 18.388599475083232 0 0 -1
218 2 5.139036088675393 2.924308720222654 14.781320717699021 0 1 -1
219 2 11.974031838472234 7.659705775072795 4.077965808779428 0 0 0
220 1 7.137466650615275 9.856507634646729 18.356856170496478 0 0 -1
221 2 4.586851607785045 10.714453155158832 15.053645844027976 0 1 -1
222 2 4.65324612237897 3.25796507569416 17.73502896587854 1 0 -2
223 1 7.15019463482448 6.798975245580481 2.8029856002335403 0 0 0
224 2 7.863725376182585 1.456008003460033 17.962425222140723 0 0 -1
225 2 10.606169475020199 4.352293432329017 15.702351043633731 -1 0 -1
226 1 10.251166456725292 9.838268026341572 3.3321835984118464 0 0 0
227 2 9.364785562673172 13.942309345925876 0.8581259978697938 0 0 0
228 2 7.6473657764502425 13.57258540887565 0.8618283605613801 0 0 1
229 1 11.513732987270988 8.322480784329652 1.6397886906944532 0 0 0
230 2 9.487066397503408 18.029941361189522 6.614433841427474 1 -1 0
231 2 17.31261936464264 8.35230662860474 4.236482525668837 0 0 1
232 1 8.491130392286255 11.202265416357928 1.9931796156845651 0 0 0
233 2 17.174950845756257 16.963050381909294 17.779172786839574 -1 0 -1
234 2 5.938943014495423 1.8341621758947455 16.43066830682571 0 1 -1
235 1 8.615952765116049 8.316215517881416 4.7692099014004485 0 0 0
236 2 13.229224792332799 15.268802122858169 6.835036921255965 1 -1 0
237 2 18.317909740153613 1.1089384016139876 0.9084857417862746 0 0 0
238 1 11.14369759066906 11.427110901870916 5.001375354338952 0 0 0
239 2 7.799636617012735 13.966134060335373 16.51052587184457 0 1 0
240 2 2.2449673352122534 14.768085879696526 4.189376712806226 0 1 0
241 1 12.58189461643736 6.801002865182505 18.138087656419316 0 0 -1
242 2 16.987354265711115 9.546621909214787 17.24914128680689 0 0 -1
243 2 11.60693297397247 17.87921786778928 5.6681450567782985 1 0 0
244 1 16.32976422225387 9.94363015180464 18.10078466146473 0 0 -1
245 2 7.591522488465254 6.80726442252034 11.955430989470267 1 0 -1
246 2 1.8464521024286102 16.770643418293442 11.213037108754303 1 -1 -1
247 1 15.797713572659164 7.124716296718575 3.458094849226465 0 0 0
248 2 14.667685332359168 7.881761588359212 11.942900667239627 1 0 -1
249 2 11.964272273691577 13.861361472166706 8.451888682224117 0 0 -1
250 1 12.983985355554427 9.919598881200505 3.2685523578305413 0 0 0
251 2 13.355321619528882 9.088523802810897 13.014722632553344 0 0 -1
252 2 16.544482978209995 1.7597432341288899 5.566112425619158 0 1 0
253 1 14.587679825621679 8.596883695984532 1.2793770703328267 0 0 0
254 2 5.7892364032978945 5.982994740155838 14.565057781272944 1 1 -1
255 2 9.992769848751482 10.94192237625693 15.909158825163544 0 0 0
256 1 16.92382215884511 11.084828359609931 1.6803394746036888 0 0 0
257 2 5.363359418565311 9.127916649834644 14.471159821243388 1 0 0
258 2 13.277066011479226 1.3282539130738145 3.2834070551286962 0 2 0
259 1 17.38071775984458 7.919576375388848 5.062775575532341 0 0 0
260 2 15.691284928402698 4.26143856889758 11.49616003634911 0 0 0
261 2 1.9591197365039437 11.048111493432888 11.210863831021621 1 0 -1
262 1 14.910196669167311 11.670676732746625 4.868522708294598 0 0 0
263 2 6.6001507906972705 7.44856511385344 5.411172204434534 1 0 0
264 2 16.316299353291726 1.2481055307318636 2.5773984908602885 0 0 0
265 1 16.20730637888201 7.208775985909312 18.352073603094347 0 0 -1
266 2 6.14200314868861 9.265394619134414 11.273126547212174 1 0 0
267 2 5.6669778554328625 7.444932715399984 8.476341297413033 0 0 0
268 1 13.210945725216746 10.324661960209047 0.33811595573773096 0 0 0
269 2 13.468704514867001 13.62147878229638 16.212685823218045 0 0 -1
270 2 13.729193686891792 5.7486206937811115 8.60449425169863 0 0 -1
271 1 13.131152206990809 7.039109851450643 3.301203043536076 0 0 0
272 2 12.451256020704525 6.556693632597238 14.709943042627337 -1 -1 -1
273 2 7.06454229131145 13.23485743868863 10.311484747505963 1 0 0
274 1 15.559551063597691 9.81678486906677 3.6079030370755376 0 0 0
275 2 9.170294866124225 15.696800502775389 12.620299761979133 0 0 0
276 2 1.128708154886011 2.3070630638038443 16.488621929661285 1 0 -1
277 1 17.33249551254642 8.376362085438396 2.0647369039777077 0 0 0
278 2 14.667270458015079 1.7407144028325527 3.848784883533257 0 1 -1
279 2 10.295809517256195 17.95652787695722 3.9042515192127865 1 -1 0
280 1 14.558541655094126 11.842138163288483 2.076920866456804 0 0 0
281 2 15.430821690815785 12.18719531836925 9.708286471955304 0 0 0
282 2 10.856913021151708 2.7788401281024715 8.102156971067675 0 0 1
283 1 14.082166254228799 8.440844038490798 5.108617495159244 0 0 0
284 2 8.057142599219727 2.052767875596507 5.175577355094294 0 0 0
285 2 12.355087294250296 6.013468153130602 5.950832297171863 -1 0 0
286 1 17.441629413519298 11.433501297634754 5.063215091397201 0 0 0
287 2 3.693160471967847 6.707969440291698 17.57943863888574 0 0 0
288 2 7.519434942111991 17.597305675203987 8.452288354955785 1 0 0

Velocities

1 -1.1994405915463957 -9.317926811456843 -4.934388937593633
2 33.324822650719334 -2.666380421830034 45.44154148121067
3 28.309612434214664 -53.85381362895718 -19.57244863064418
4 -7.877341077585658 3.534532120879157 8.553728019260246
5 17.509604953513527 -87.41756259054087 -3.2215824234134742
6 -1.9221024658413286 31.994405199384477 -66.14269825413247
7 -7.035706780766704 5.490767833982915 2.955886101656775
8 9.52165410503331 -27.537720625794083 -15.808835869798818
9 39.76627335063465 28.24551909651826 -10.596140599384187
10 -10.288719160990325 2.1082487144900304 11.64234556784552
11 -11.445233600371028 -15.169436202046766 34.43525047694237
12 -27.2749486725065 -4.7713874810084524 -12.252147805674257
13 15.265454198794783 23.53089434180482 12.379594179257019
14 -16.879191212074936 -1.2070090985616662 0.9948195328547593
15 -51.2831665968312 29.81074410141231 -0.15327896211999184
16 -13.734446626214464 -8.162843877048765 1.3366429868086411
17 -3.2426457931023673 4.700753108844984 -75.81377362940745
18 21.864236000206237 -29.424940330905454 10.236709394042045
19 -4.748756854968851 9.631097568020607 22.30587158252852
20 77.22379762688578 -53.405909298904 11.481019945786779
21 10.857197797995799 -30.898413795774303 -25.354653390478724
22 10.816666353139464 -4.371005903136232 15.821824401284514
23 1.3691007712302048 48.4198644464047 -43.46168657566115
24 17.60143547563803 -2.2105250721169822 -11.397103487472283
25 2.319081862171433 4.230766834416156 -7.188061863314192
26 10.265904551746384 -7.768619381534105 23.36433020903123
27 12.436216291880658 -9.347451576376066 2.866043458143478
28 -11.14672333429625 -2.1309277295504634 11.989230351405535
29 0.20642375713980193 16.78557918403498 9.462037327361266
30 12.419450213698195 3.059317218098623 48.31993389167241
31 -2.7870696694630412 2.42746862603709 -5.073869318434608
32 -21.87983328917334 -2.0048484730700156 -11.344180030693302
33 40.83256957119725 -48.064369533663154 12.06354782957733
34 1.741219633503171 -4.583242881519586 -10.18557700878142
35 -3.6002611405958476 -69.27564292222968 -14.222088721067642
36 -7.361238720176919 -36.68487856931555 49.129831030951756
37 -3.5946144848532917 -11.88505993322742 -4.379647786167248
38 15.010837111273341 40.01012540343069 33.480661856224266
39 6.81142162739011 24.952668616101384 -10.597525351189246
40 -5.758401022271144 1.7506104194143683 3.896565922112036
41 1.4100228680066784 -52.56289528574169 64.78811183515496
42 33.811382598956484 18.10896387774206 6.50741337934712
43 -6.323004998466114 -21.563851619678957 -5.609984242461036
44 1.6832081049299228 -48.13760847010087 10.462378417990074
45 27.316848220308962 -64.44937306231182 4.046068286412698
46 0.25133038179423817 4.408544338857832 -4.170947628205403
47 -0.5455965929378429 14.501267396929292 -21.998012318851185
48 10.14215387819761 -36.5388263798902 3.799049846478678
49 12.155101331754004 -4.114844625137613 -2.2231746207711547
50 22.981235238612825 10.44638750306406 -5.943327307696588
51 27.50557473458606 -30.110163427003506 -55.52201009883732
52 -3.1028202975806467 8.506573975316917 2.758261221237107
53 -12.180685921080817 12.941764150784163 16.44257101164912
54 45.732146811739135 -11.097434199720304 -38.990843249225186
55 -1.9741788145186678 -3.3453201455195885 0.2989371922607014
56 6.291226876638916 -15.280360778683843 -88.71287627190088
57 -7.163876465683252 -13.117318766556034 -19.09726155368645
58 -2.3596702571812873 9.46830616550935 -2.697348699674079
59 34.75406250054125 -42.928068841660405 45.021637015517584
60 -0.1988289364289686 -17.347368513908638 -19.682254973652267
61 -14.228601279948935 6.319791034946959 7.361340637988035
62 -17.693296327165953 4.22154580293039 -34.51389788012206
63 2.7444517691913526 -10.377452233172777 -10.068415812566457
64 -8.375040645593415 -2.0582013717050183 7.2739147782148885
65 27.23056778200484 14.850315978481493 7.859736832253673
66 -18.06307155700422 3.779083515435843 -41.17026390925542
67 0.3871359381083001 1.3463682682043796 -2.5186514062331256
68 -18.72620032068026 62.48568707566271 24.902779762969306
69 12.303310320382314 13.113775432070783 8.609053749638885
70 -14.891259357043296 0.9373047822262301 -2.6661133602827616
71 45.97203874613484 -49.215705958626565 22.26377738595109
72 44.52771834717089 -43.792546831476336 64.2754238563057
73 2.3724026824410354 4.526383189493467 -8.485518263998397
74 25.601847850558663 22.86720342413519 13.43115217997147
75 23.626223548481764 -72.35009712255433 -71.63371020400106
76 -2.033885030754931 5.498169404496096 1.1848392199223359
77 70.4413429924236 41.03153305463284 -32.80207666135023
78 -62.77105718821999 30.63175673985724 -20.520209723014666
79 -0.5325131603219225 3.5303796653770685 -20.76987192102629
80 26.14945616047742 30.9358369554025 19.248469181535384
81 22.966472692462194 14.18232407707659 10.570553379726432
82 -11.546881226191664 1.158005585829319 -12.930880750936225
83 2.18675760602024 -48.72971395602028 -2.158475546822594
84 29.70422289253068 13.184676781300636 15.616029794812144
85 -1.7116176945888928 7.049608821542265 15.925220033748468
86 -1.2241832796056147 -15.13643814665335 -20.755508291924933
87 35.793545141680276 44.074346120803966 45.66967152136317
88 0.6673002587121311 2.5805856005690555 -1.9645340051950253
89 6.158819188032497 23.223694941598904 -23.340328382521662
90 38.082769885465304 33.55981526231995 38.59683565394688
91 2.337107696665166 5.94170926846739 10.548679087544436
92 18.625450446338842 -8.107417405817968 9.26449488994782
93 -8.197262873930304 -26.113697907387643 -69.86323196690763
94 2.4620425638692236 16.483617094523158 -3.389809888136493
95 -28.32318091366269 -44.205664646658285 15.12191789842942
96 1.8413722666009211 40.56483080380912 -32.05478679700113
97 -9.044329929123064 1.4074933328780859 9.487570048896815
98 -12.820403575130475 28.10540607092287 -7.3615982895512015
99 -40.18944443146542 16.18012436783447 21.689620709095294
100 -1.0305239796955998 -3.4346263986351646 -10.695832675035017
101 52.65149959801368 -17.666505124429968 4.166408517980031
102 -32.885168933215716 -43.38440516724749 -35.37239369509632
103 -13.691290324038384 -6.47263752084315 4.8258998795841315
104 33.27877742046919 68.90942949425528 -75.93608577058967
105 26.374565140468004 25.179283493025277 -48.423928727825135
106 -5.023433344719703 -3.414278348224661 -1.2209594136546624
107 24.433960196646165 33.38039151924701 -7.0812311358400075
108 26.649641975020256 -7.5632894701259135 6.400943577811487
109 4.271250805753181 6.032045188129421 0.1495216515720787
110 2.9311011551266195 30.70337426720158 -49.075356296274094
111 27.88416148656029 -31.856128705013724 -2.985306497759922
112 5.535722350041691 -5.847183207861927 3.127089015329921
113 22.32056451957108 10.756832351688423 25.287045948205904
114 24.064920038059768 -29.12180378301212 21.041920609242013
115 -5.2757260959067445 -7.73544925290121 -6.639303639802623
116 -54.88627914453642 14.213801451169042 41.34950393392922
117 -30.25617839262972 -13.213750689133944 -43.222956744596324
118 11.505009541876747 -1.5521852265050635 9.725889197773656
119 49.10129585604633 -6.283258954413497 55.51632976986927
120 29.230771622603275 6.2613326158368645 10.448446468759569
121 -7.430397712970546 -2.7048441418841787 7.477066932397988
122 20.12296860077656 67.72708329296049 -49.470100077717824
123 67.3647951533386 37.62266246995302 -26.591965592229805
124 1.6189538626842033 0.7856882504250562 0.7637683453157622
125 -2.9717257402511237 2.8969220070978756 49.50225706773819
126 -18.834538074299072 -38.37130108689721 16.392985667226878
127 11.633789668711836 -12.065612697970268 -3.50452206229802
128 -37.63210271047624 5.035511715090031 20.2524951499168
129 -43.78560714404388 32.235855394557774 25.702527272668892
130 13.29944718605466 -14.624239524462423 -2.7680721102869943
131 52.983427408510146 32.28231953830167 -5.466343641123656
132 50.703930722679395 -35.77786922358958 0.4651974322662138
133 3.74315921996422 3.2243221087529608 8.794173103082125
134 25.653089556912867 13.785051143004386 10.517549169892682
135 -22.893265445736517 -31.784816835348312 14.604908242612632
136 5.19177253183143 0.27884200875592086 -0.34298874910231925
137 -4.592568544438552 -9.842757736396562 47.00496996592342
138 -16.313914083110394 35.489250644117696 22.87089078088961
139 -0.1295585833614338 -6.7647886998119775 -2.4793151747639355
140 21.658850298358896 -29.895507444773685 24.303456377156788
141 -33.87183643467216 16.136593188832446 47.66180877327378
142 6.957417266361808 10.473041848052379 3.1386827902446823
143 -5.306288100410693 -8.345139080204511 -8.238625094078223
144 -24.997921337087824 16.601931852484814 2.6849184030298554
145 6.251539858947058 4.085001382897885 0.5397203684061113
146 11.800014566377294 -4.757283111331017 -59.557157912704916
147 -28.306907935505865 14.372153465183304 13.283044401978199
148 -14.578903455710511 -2.2650071455366088 2.6693765915591796
149 10.193104671663665 -32.24967415040324 3.1101959824336363
150 5.671739138509904 -51.62147348096213 -17.70958557538973
151 -3.1575991310573164 13.876679114886631 0.16712197419295785
152 -3.7797922850552146 18.712389203048275 -8.484463602729315
153 -62.367265425404874 -1.861777230731891 15.571515888972002
154 -12.57938276450639 -7.203684995754076 10.20225212479104
155 -27.832582099005403 12.283652207050416 -30.137090752191565
156 22.168056320387482 -20.468424377105716 33.25387866625358
157 -6.487399447759763 -13.342336987248597 -19.76045214981793
158 -70.03693491937554 -48.44672841967786 20.605631981396964
159 5.900169109184431 33.64463883202125 -57.42574259217568
160 -3.370364961156705 -6.175949870478699 8.004900586229912
161 -10.126672773651404 -8.295960207838528 19.738184586955395
162 -45.0749141430634 55.204523611239665 81.64367291708912
163 3.277019771800618 -5.177938423974512 -6.995928175371679
164 -10.103031898877882 -54.47342378193503 -28.94301610982475
165 -9.603797636576413 -36.80848387977404 -45.32361598040763
166 2.9365887300610938 -0.5777302117061447 -1.7904113882629962
167 -39.625152364358804 -39.86608788946818 1.7865872677761239
168 -11.735596140358387 -10.165822841019127 57.84199270731411
169 -15.479858936972951 -6.149700344422934 -15.248170230233958