ITEM: TIMESTEP
0
ITEM: NUMBER OF ATOMS
20
ITEM: BOX BOUNDS xy xz yz pp pp pp
-2.2530000210000023e+00 4.5059999999999976e+00 -2.2530000210000023e+00
0.0000000000000000e+00 3.9023105058000001e+00 0.0000000000000000e+00
0.0000000000000000e+00 7.3460000000000001e+00 0.0000000000000000e+00
ITEM: ATOMS id type x y z vx vy vz
1 1 -1.1747e-08 2.60154 0.453983 -5.17228 1.69344 -0.470656
2 1 -1.1747e-08 2.60154 3.21902 4.30403 -2.71692 -4.75694
3 2 -1.1747e-08 2.60154 1.45451 -6.28161 6.43334 8.78748
4 2 -1.1747e-08 2.60154 2.21849 6.07579 8.97013 7.30874
5 2 -1.8354e-08 3.41062 0.205688 13.4692 0.982922 -13.8684
6 2 -0.700683 2.197 0.205688 -3.81449 14.5055 8.14315
7 2 0.700683 2.197 0.205688 4.71914 10.6246 -14.4071
8 2 -1.8354e-08 3.41062 3.46731 15.7818 9.05275 12.9866
9 2 -0.700683 2.197 3.46731 13.2653 14.646 7.53441
10 2 0.700683 2.197 3.46731 -5.44692 2.51844 -11.4375
11 1 2.253 1.30077 6.89202 1.27419 -0.931506 -3.29308
12 1 2.253 1.30077 4.12698 -2.24688 -2.35535 1.81601
13 2 2.253 1.30077 5.89149 -5.02419 -10.0832 -3.76977
14 2 2.253 1.30077 5.12751 -15.9656 4.30607 11.838
15 2 2.253 0.491691 7.14031 2.74293 -11.1561 10.6573
16 2 2.95368 1.70531 7.14031 -5.39796 -17.9703 3.91265
17 2 1.55232 1.70531 7.14031 9.96499 2.13175 -0.298162
18 2 2.253 0.491691 3.87869 8.62177 -6.71649 11.9995
19 2 2.95368 1.70531 3.87869 -15.3462 -8.64498 16.2993
20 2 1.55232 1.70531 3.87869 -2.63635 14.8823 -2.04874
ITEM: TIMESTEP
100
ITEM: NUMBER OF ATOMS
20
ITEM: BOX BOUNDS xy xz yz pp pp pp
-2.2530000210000023e+00 4.5059999999999976e+00 -2.2530000210000023e+00
0.0000000000000000e+00 3.9023105058000001e+00 0.0000000000000000e+00
0.0000000000000000e+00 7.3460000000000001e+00 0.0000000000000000e+00
ITEM: ATOMS id type x y z vx vy vz
1 1 -0.135135 2.63824 0.521457 -4.18969 -0.482939 0.811418
2 1 0.204463 2.61223 3.28927 -12.9795 -3.38916 -10.6522
3 2 -0.621145 2.40109 1.44642 -8.34867 -5.92519 -23.1219
4 2 1.04019 3.29992 2.25885 43.6624 26.8064 6.78919
5 2 0.772805 3.46492 6.66618 -1.42119 2.90418 -12.6713
6 2 2.47967 2.47344 0.978772 -10.0455 -10.9321 -12.5651
7 2 2.80192 1.59325 6.60896 -23.8692 3.53219 23.7301
8 2 0.868691 2.99677 3.73296 1.55646 -42.8237 7.16208
9 2 0.54108 2.82926 2.87939 50.6237 34.5243 12.9315
10 2 0.174941 2.05491 3.27707 9.73377 -9.24108 47.8176
11 1 2.2158 1.34097 6.7515 -0.208947 -1.14457 8.6088
12 1 2.38731 1.35686 4.18592 3.3559 1.23278 -3.54554
13 2 2.74814 1.03446 6.83477 32.5059 -30.0287 13.1591
14 2 2.17712 0.837031 6.31863 14.2543 3.68627 -0.690456
15 2 1.54665 1.73021 6.58141 3.17225 31.3191 12.3141
16 2 2.19909 1.56272 7.09262 -20.3769 8.4435 -51.3749
17 2 1.85566 1.51166 0.260624 8.54615 16.0544 -8.49732
18 2 -0.463148 2.93635 3.09412 -25.3474 -4.46099 12.9955
19 2 0.942548 0.913169 4.53479 15.4391 -14.6775 1.7911
20 2 -0.118656 2.3322 3.09926 22.0928 21.0899 8.4507
ITEM: TIMESTEP
200
ITEM: NUMBER OF ATOMS
20
ITEM: BOX BOUNDS xy xz yz pp pp pp
-2.2530000210000023e+00 4.5059999999999976e+00 -2.2530000210000023e+00
0.0000000000000000e+00 3.9023105058000001e+00 0.0000000000000000e+00
0.0000000000000000e+00 7.3460000000000001e+00 0.0000000000000000e+00
ITEM: ATOMS id type x y z vx vy vz
1 1 -0.100688 2.68901 0.76812 0.709315 3.0392 -5.34829
2 1 0.0837289 2.51768 3.25837 0.0541111 2.28407 -3.93322
3 2 -0.388047 2.05407 1.58851 17.0637 -2.80319 12.6957
4 2 1.08878 3.02968 2.20915 1.99241 -6.80622 -1.08405
5 2 0.635679 4.17823 6.81782 20.8763 -30.7196 5.24554
6 2 2.52112 2.2745 0.559382 -6.73055 -4.47277 -13.0037
7 2 2.17986 1.47126 7.15608 4.04128 8.01197 -1.08904
8 2 -0.112444 2.40346 3.29775 0.432402 -1.07057 49.2081
9 2 0.430553 2.73029 3.22289 21.5668 2.97152 -6.18613
10 2 0.35893 2.56325 3.6656 -19.5819 -27.748 38.8912
11 1 2.23401 1.3473 6.73737 -2.51776 5.76812 10.5758
12 1 2.39723 1.41411 4.26867 -1.08719 -3.67148 -1.4709
13 2 2.66256 0.875972 6.77453 -31.629 10.8578 -10.3749
14 2 2.50793 1.61346 6.62071 -5.9532 17.442 -13.1217
15 2 2.01153 1.47926 6.28519 8.49625 4.0075 -41.6391
16 2 2.4016 2.57816 5.60786 11.3285 -4.02586 24.7922
17 2 1.75661 1.17564 6.73103 -2.49797 -17.358 -40.5944
18 2 -0.281155 2.57357 3.29117 -31.6545 -18.6034 5.92014
19 2 1.39266 0.527868 3.88277 15.8422 15.0637 -17.2638
20 2 0.244647 2.28427 3.02529 19.1395 -4.10609 9.01664
ITEM: TIMESTEP
300
ITEM: NUMBER OF ATOMS
20
ITEM: BOX BOUNDS xy xz yz pp pp pp
-2.2530000210000023e+00 4.5059999999999976e+00 -2.2530000210000023e+00
0.0000000000000000e+00 3.9023105058000001e+00 0.0000000000000000e+00
0.0000000000000000e+00 7.3460000000000001e+00 0.0000000000000000e+00
ITEM: ATOMS id type x y z vx vy vz
1 1 -0.0777022 2.88428 0.570145 0.630396 5.29218 -6.76411
2 1 -0.0397889 2.44743 3.26841 -1.87195 -3.85037 6.10953
3 2 0.111212 2.23861 1.40462 11.4403 -9.88916 -5.94456
4 2 1.14349 3.01108 2.613 -0.870161 -6.67597 -8.2693
5 2 3.38034 0.687938 6.62261 15.9952 13.9817 -2.72675
6 2 2.09567 2.54919 0.797584 22.6611 -16.1311 -20.2271
7 2 2.11167 1.59028 7.63927 -5.70261 8.86741 9.81611
8 2 0.248153 2.28108 4.25648 -2.12824 17.933 -2.96602
9 2 0.256643 2.8508 3.06721 -8.58536 21.0624 -35.9337
10 2 -0.210968 2.64048 3.52911 15.3497 -4.74259 6.26651
11 1 2.14697 1.28214 6.84156 -2.12899 1.82731 11.358
12 1 2.58621 1.18759 3.98853 -9.3117 -7.87668 -4.76293
13 2 2.53708 1.16266 7.10041 12.963 3.33181 4.7776
14 2 2.05296 1.63179 6.7486 -8.96863 4.41365 -0.798907
15 2 2.13848 1.30323 6.48143 -11.1273 21.1347 -22.0657
16 2 2.52266 2.48528 6.00649 -9.56251 -22.896 -6.45277
17 2 1.76602 0.977142 7.2729 3.22167 -15.3057 -0.788017
18 2 -0.4434 2.32885 3.26903 -10.5328 -15.7766 3.31719
19 2 2.156 1.26487 3.86014 63.3155 30.811 28.41
20 2 -0.213535 2.24073 2.97791 13.9889 6.74204 6.06173
ITEM: TIMESTEP
400
ITEM: NUMBER OF ATOMS
20
ITEM: BOX BOUNDS xy xz yz pp pp pp
-2.2530000210000023e+00 4.5059999999999976e+00 -2.2530000210000023e+00
0.0000000000000000e+00 3.9023105058000001e+00 0.0000000000000000e+00
0.0000000000000000e+00 7.3460000000000001e+00 0.0000000000000000e+00
ITEM: ATOMS id type x y z vx vy vz
1 1 -0.0202675 2.87989 0.41735 -3.41515 -0.334336 -1.71337
2 1 -0.0347288 2.32343 3.2338 9.50892 -0.810644 4.51008
3 2 0.299185 2.36123 1.27364 2.04544 -1.02458 -14.6507
4 2 0.953355 3.28982 2.69122 -11.4019 -11.4069 3.01698
5 2 3.44402 1.05679 6.47812 10.8425 -1.99454 -19.4669
6 2 2.13392 2.46809 0.968989 -4.50999 -11.5205 -3.70333
7 2 2.04387 1.34994 0.11659 7.66959 -4.91071 9.95564
8 2 0.0415496 2.38326 4.31485 15.5922 -1.76965 -11.0103
9 2 0.0105558 2.59885 2.91525 -3.46842 4.80414 -11.8337
10 2 -0.0899126 2.42977 3.63087 -7.13034 -0.875851 -6.10637
11 1 2.17351 1.47174 7.05164 -0.714245 3.54033 -2.5739
12 1 2.48973 1.0942 3.98396 -6.6529 -3.35719 2.29144
13 2 2.49579 1.17403 6.95577 21.0999 16.5963 0.345953
14 2 2.24628 1.86874 7.2379 13.1085 4.48104 27.9609
15 2 1.93515 1.4756 6.72993 -3.93675 2.20644 -13.0291
16 2 2.02383 2.46263 5.97348 -16.2456 0.693963 13.8224
17 2 1.61325 1.0289 7.09586 -10.7361 5.68139 5.56402
18 2 -0.34813 2.20174 3.03981 -4.36531 0.499545 10.4195
19 2 2.78074 1.44149 3.68066 4.48946 8.91831 4.42279
20 2 0.128588 1.91055 3.05306 -2.866 -2.68377 -15.8219
ITEM: TIMESTEP
500
ITEM: NUMBER OF ATOMS
20
ITEM: BOX BOUNDS xy xz yz pp pp pp
-2.2530000210000023e+00 4.5059999999999976e+00 -2.2530000210000023e+00
0.0000000000000000e+00 3.9023105058000001e+00 0.0000000000000000e+00
0.0000000000000000e+00 7.3460000000000001e+00 0.0000000000000000e+00
ITEM: ATOMS id type x y z vx vy vz
1 1 -0.187914 2.91362 0.445929 -3.3571 1.44604 2.4752
2 1 0.105479 2.2974 3.09746 -3.36914 -1.55201 -2.87308
3 2 0.0477575 2.21988 1.23087 6.49577 -2.65678 8.14616
4 2 0.820826 3.44296 2.60941 -7.60091 5.22127 6.18962
5 2 3.47711 1.13502 6.33354 2.17643 -0.775706 -5.50619
6 2 2.47746 2.22611 1.0438 -8.68962 2.98624 12.6499
7 2 2.38731 1.1518 -0.101565 -0.0871129 -4.33825 -12.1187
8 2 0.30213 2.66431 4.11508 11.0158 -3.70243 7.79219
9 2 0.0369591 2.57291 2.81043 22.3145 -14.6672 8.88078
10 2 -0.0385708 2.25552 3.46206 -9.88896 -8.82567 1.61354
11 1 2.25465 1.57249 7.08517 2.08786 0.473326 -4.47002
12 1 2.29054 0.997077 4.04428 0.885179 -1.7636 0.718505
13 2 2.60734 1.48231 6.89926 -4.58457 1.64273 5.79659
14 2 2.09571 1.54377 7.48285 -6.84198 1.89633 24.1969
15 2 2.00343 1.90408 6.94414 18.5676 -4.29597 -2.71833
16 2 1.844 2.76473 6.3168 11.0513 1.14461 4.5635
17 2 1.7036 1.13621 7.00689 -3.15956 18.8314 4.72772
18 2 -0.122005 1.98695 3.20921 15.538 9.41146 -29.6795
19 2 2.90806 0.876732 4.01497 -6.44806 -7.49462 -1.70094
20 2 0.32487 2.04748 2.88954 -9.83288 16.7925 0.361922
ITEM: TIMESTEP
600
ITEM: NUMBER OF ATOMS
20
ITEM: BOX BOUNDS xy xz yz pp pp pp
-2.2530000210000023e+00 4.5059999999999976e+00 -2.2530000210000023e+00
0.0000000000000000e+00 3.9023105058000001e+00 0.0000000000000000e+00
0.0000000000000000e+00 7.3460000000000001e+00 0.0000000000000000e+00
ITEM: ATOMS id type x y z vx vy vz
1 1 -0.11423 2.95852 0.526614 -0.210335 2.64378 -2.18331
2 1 0.0265005 2.2838 3.02711 -3.7568 3.87913 -2.27987
3 2 0.244259 2.25507 1.18464 2.286 -15.6255 4.06044
4 2 0.866293 3.5509 2.93034 -25.0467 -34.0459 19.4031
5 2 3.58166 1.18728 6.57647 3.25089 -7.10545 8.62252
6 2 2.3139 2.42183 0.971842 7.52617 23.7355 3.12953
7 2 2.2689 1.26038 -0.100515 -4.08285 11.0489 -8.75222
8 2 0.233313 2.39218 4.09873 14.3974 -1.74162 -0.866709
9 2 0.185746 1.88988 2.80286 -7.38317 -30.0565 -8.78317
10 2 0.536923 2.13106 3.3434 41.9095 2.87341 -10.1687
11 1 2.22954 1.66962 6.99216 -0.950418 0.835636 -1.69266
12 1 2.28712 0.789109 4.25757 -1.53596 -1.23787 7.21552
13 2 2.6159 1.51684 6.93392 4.09138 14.2639 -0.396191
14 2 2.10343 1.85392 7.35032 4.37199 -5.38228 -10.8576
15 2 2.07938 1.99238 6.76644 5.54356 -6.02292 -11.9307
16 2 2.04664 2.69782 5.93192 -1.06933 12.4629 -0.86516
17 2 1.73733 1.1844 6.74997 4.27487 -2.85222 1.97613
18 2 -0.524663 2.41151 3.18843 4.75362 26.0189 -5.43994
19 2 2.67647 0.814866 3.78302 -2.20411 -21.8394 14.7636
20 2 0.181105 2.48671 2.71061 -0.991222 -14.6973 -2.37248
ITEM: TIMESTEP
700
ITEM: NUMBER OF ATOMS
20
ITEM: BOX BOUNDS xy xz yz pp pp pp
-2.2530000210000023e+00 4.5059999999999976e+00 -2.2530000210000023e+00
0.0000000000000000e+00 3.9023105058000001e+00 0.0000000000000000e+00
0.0000000000000000e+00 7.3460000000000001e+00 0.0000000000000000e+00
ITEM: ATOMS id type x y z vx vy vz
1 1 -0.11216 2.91485 0.611894 -0.312235 6.42294 2.9326
2 1 -0.0677178 2.1873 3.02298 -6.87712 1.29286 13.2929
3 2 0.245455 2.16369 1.2268 -1.12556 -9.36256 -8.56887
4 2 0.756719 3.48809 2.81465 27.332 12.3483 -2.58135
5 2 3.52566 1.21132 6.50859 7.99716 -0.0460754 12.7104
6 2 2.23796 3.00695 0.762783 4.31993 -9.88082 -11.6709
7 2 2.27518 1.52069 7.2854 -6.97183 3.23993 -13.361
8 2 0.198893 2.07365 4.0532 2.3112 -9.70287 -2.95592
9 2 -0.241809 2.43697 2.68346 12.9076 3.81372 21.7634
10 2 0.22212 1.87385 2.83723 87.5225 -55.2727 -75.6695
11 1 2.26698 1.79699 7.06235 2.00474 -3.74834 0.56078
12 1 2.39094 0.674068 4.22898 -2.0274 -0.288469 -4.10161
13 2 2.48857 1.79055 6.67222 -14.9089 -7.95951 -8.42084
14 2 2.06768 1.81176 7.36883 -0.190687 7.06704 3.00692
15 2 2.14061 2.13162 6.89448 -8.9124 2.01551 -13.9253
16 2 2.3563 2.81295 5.89974 8.59094 12.6484 -4.84593
17 2 1.77543 1.34502 6.83985 2.51744 15.6094 11.0685
18 2 -0.430464 2.29764 3.16038 -45.9426 26.3467 -6.97185
19 2 2.90043 0.741104 3.78806 3.40221 6.40752 -5.3049
20 2 0.234884 2.36394 2.79069 -21.1528 -26.7041 4.24987
ITEM: TIMESTEP
800
ITEM: NUMBER OF ATOMS
20
ITEM: BOX BOUNDS xy xz yz pp pp pp
-2.2530000210000023e+00 4.5059999999999976e+00 -2.2530000210000023e+00
0.0000000000000000e+00 3.9023105058000001e+00 0.0000000000000000e+00
0.0000000000000000e+00 7.3460000000000001e+00 0.0000000000000000e+00
ITEM: ATOMS id type x y z vx vy vz
1 1 -0.0529727 2.90274 0.869662 -4.12949 -1.78569 -1.84753
2 1 -0.051129 2.15315 3.14358 0.897725 2.66065 9.16005
3 2 -0.521769 2.17948 1.53687 6.14847 28.0229 -21.5379
4 2 0.674839 2.78029 2.80486 -9.77726 -5.15714 8.13555
5 2 3.78081 1.56079 6.48258 -3.77223 -0.260999 -9.39273
6 2 2.22051 2.62355 0.869032 6.56132 3.91843 -3.63116
7 2 2.41152 1.67471 7.03153 -3.37166 5.90357 -19.3984
8 2 -0.111511 2.09675 3.51069 21.5719 30.6586 -41.4791
9 2 -0.146764 1.78114 3.03992 1.31796 11.1214 2.51125
10 2 1.30291 1.60694 2.77269 30.669 -30.7146 6.70866
11 1 2.26584 1.83908 6.7642 5.3086 -5.18008 0.0650209
12 1 2.29371 0.774758 4.18783 -4.16358 2.77751 1.09458
13 2 2.72847 1.73979 6.651 3.15875 4.49754 -0.880471
14 2 2.02266 1.97686 7.01138 -13.3728 8.20524 -2.00063
15 2 2.21613 2.15521 6.46965 -6.49913 29.4201 -16.4693
16 2 2.25933 2.87422 5.69247 -8.88108 15.7775 -10.976
17 2 1.77809 1.37442 6.71925 8.73918 -3.11266 12.8165
18 2 -0.341934 2.20018 3.09798 -19.9364 -5.19396 6.60716
19 2 2.78773 1.14882 4.2735 9.37772 3.04611 15.5892
20 2 -0.126666 2.52449 3.31045 -5.23981 -83.9112 5.62032
ITEM: TIMESTEP
900
ITEM: NUMBER OF ATOMS
20
ITEM: BOX BOUNDS xy xz yz pp pp pp
-2.2530000210000023e+00 4.5059999999999976e+00 -2.2530000210000023e+00
0.0000000000000000e+00 3.9023105058000001e+00 0.0000000000000000e+00
0.0000000000000000e+00 7.3460000000000001e+00 0.0000000000000000e+00
ITEM: ATOMS id type x y z vx vy vz
1 1 -0.210169 2.89015 0.714138 -2.31058 -4.89177 0.553107
2 1 0.0689259 2.09436 3.25319 -7.13572 -4.9489 -7.88406
3 2 -0.0123213 2.02527 1.31512 17.5152 7.76152 -14.142
4 2 0.825774 2.90992 2.87832 6.11795 -24.9032 4.77952
5 2 -0.829663 1.66476 6.18216 13.6945 15.0941 1.97747
6 2 2.09052 3.00844 0.78392 5.46614 8.60059 -2.77101
7 2 2.79304 1.96674 7.21576 6.50199 5.32064 -4.01875
8 2 -0.225642 2.27285 3.55369 -24.3646 19.3222 23.2906
9 2 0.0199383 1.82612 3.04556 48.0372 19.2654 24.6633
10 2 0.33413 0.681502 2.92174 6.03648 -50.6667 7.01086
11 1 2.4178 1.95417 6.88085 -0.958735 4.05873 2.40083
12 1 2.12478 0.754355 4.11559 -1.04191 5.54788 -1.7325
13 2 2.55175 1.8738 6.41114 -2.91391 -16.3444 -0.0449095
14 2 2.13556 1.92976 7.11366 8.4497 -1.77727 12.1432
15 2 2.13563 2.26135 6.79876 -2.06041 1.87815 11.4314
16 2 2.20958 3.06446 5.80782 2.25738 8.12888 -0.998232
17 2 2.23608 1.39477 7.10954 5.4329 1.65188 7.55044
18 2 0.212962 2.44522 2.93122 15.294 22.1426 -5.80136
19 2 2.58783 0.845844 3.72382 -9.76608 -10.5752 -13.655
20 2 -0.203896 1.94032 3.49359 -4.12278 -3.02666 1.88538
ITEM: TIMESTEP
1000
ITEM: NUMBER OF ATOMS
20
ITEM: BOX BOUNDS xy xz yz pp pp pp
-2.2530000210000023e+00 4.5059999999999976e+00 -2.2530000210000023e+00
0.0000000000000000e+00 3.9023105058000001e+00 0.0000000000000000e+00
0.0000000000000000e+00 7.3460000000000001e+00 0.0000000000000000e+00
ITEM: ATOMS id type x y z vx vy vz
1 1 -0.0669319 2.8618 0.704008 -1.80424 0.781046 -4.69317
2 1 0.0828258 2.04804 3.11639 4.55574 1.16584 -5.39224
3 2 0.197993 2.01342 1.28842 -16.4011 -8.72832 0.442468
4 2 0.568867 2.38099 3.28627 -24.8093 -13.0797 9.70976
5 2 -0.977971 2.16272 6.00296 4.68795 -3.40528 6.85503
6 2 2.37995 3.29945 0.660915 6.12078 2.99232 11.9569
7 2 2.71563 2.08873 7.2248 -7.65553 6.20429 -4.95324
8 2 -0.153146 2.31803 3.34904 -10.0631 -8.38316 4.15469
9 2 0.374232 1.73574 3.28077 -10.338 -0.729051 14.905
10 2 0.30279 0.524899 2.72212 0.316777 -12.5849 -4.23025
11 1 2.3279 1.98605 6.9352 0.57233 0.546914 -2.19738
12 1 2.24059 0.798101 4.2321 2.15761 1.1114 3.89381
13 2 2.50948 1.81761 6.4892 -10.9774 15.3573 18.2819
14 2 2.13899 1.83096 7.2674 19.2003 7.1988 18.8935
15 2 2.17228 2.49218 6.7955 12.4974 11.0975 -5.35392
16 2 1.83362 3.16755 5.93236 -6.63212 0.536761 11.0586
17 2 2.08658 1.71747 6.94837 -5.27342 0.191808 -35.0818
18 2 -0.203712 2.26991 2.73865 24.0572 -18.1103 16.661
19 2 1.68446 0.646222 4.10053 -20.4829 -14.2194 22.2445
20 2 -0.233136 1.63758 3.00714 1.90096 6.81976 -18.4325
ITEM: TIMESTEP
1100
ITEM: NUMBER OF ATOMS
20
ITEM: BOX BOUNDS xy xz yz pp pp pp
-2.2530000210000023e+00 4.5059999999999976e+00 -2.2530000210000023e+00
0.0000000000000000e+00 3.9023105058000001e+00 0.0000000000000000e+00
0.0000000000000000e+00 7.3460000000000001e+00 0.0000000000000000e+00
ITEM: ATOMS id type x y z vx vy vz
1 1 -0.0696907 2.81026 0.755126 0.0336645 -1.11631 2.3253
2 1 0.16653 1.95119 3.06051 5.75401 0.923399 7.61193
3 2 0.0706872 1.85313 1.21482 3.1632 8.74386 -18.4497
4 2 0.377785 2.07249 3.35886 -11.3868 -6.42973 -11.7652
5 2 -0.968608 2.42876 5.91454 -6.92027 12.1327 -0.857423
6 2 2.28398 3.28077 0.78196 1.48163 1.59447 -3.89473
7 2 2.38643 2.4555 7.15577 -10.8244 -4.1573 -12.6868
8 2 -0.163858 2.49303 3.14926 -0.437091 17.8049 3.64728
9 2 0.161074 1.56808 3.29307 -3.44807 -11.2168 -8.66229
10 2 0.152605 0.380039 3.01898 -1.74575 -5.28743 -5.01013
11 1 2.30635 2.16782 6.80574 1.48304 4.61557 -4.40342
12 1 2.15191 0.697642 4.36627 -2.83993 -6.32904 1.13567
13 2 2.47491 1.9153 6.589 6.21074 -7.42391 -0.157046
14 2 2.19244 1.82697 7.36415 -5.49519 8.3094 -4.52269
15 2 2.22951 2.62498 6.60518 5.59845 15.639 1.0592
16 2 2.1411 3.44889 5.96255 -2.97498 -8.62151 9.74694
17 2 2.17875 1.79121 6.68797 -17.7671 11.4428 -0.111813
18 2 0.46453 2.09374 3.02324 9.62759 -3.23294 3.29694
19 2 1.63183 0.696565 4.33922 -6.29747 5.71986 1.35046
20 2 0.0180424 1.71068 2.63624 5.76926 -19.7663 -6.33888
ITEM: TIMESTEP
1200
ITEM: NUMBER OF ATOMS
20
ITEM: BOX BOUNDS xy xz yz pp pp pp
-2.2530000210000023e+00 4.5059999999999976e+00 -2.2530000210000023e+00
0.0000000000000000e+00 3.9023105058000001e+00 0.0000000000000000e+00
0.0000000000000000e+00 7.3460000000000001e+00 0.0000000000000000e+00
ITEM: ATOMS id type x y z vx vy vz
1 1 -0.166107 2.78464 0.716482 3.1359 1.36852 -0.826898
2 1 0.266698 1.89863 3.09811 1.40508 -6.12681 -0.296909
3 2 -0.169299 1.80356 1.05529 -0.859149 -4.64687 1.77341
4 2 0.501706 1.97541 3.33139 19.8233 -3.85716 4.62396
5 2 -0.942548 2.39282 5.96399 2.27438 0.104207 7.95898
6 2 2.1334 3.43619 0.729723 -23.2959 2.19261 -17.0753
7 2 2.43142 2.44654 7.03824 -4.73006 5.76403 -17.095
8 2 0.0436677 2.04876 3.52214 3.45835 -21.2406 -6.05909
9 2 0.385997 1.43025 3.15245 14.1357 11.0283 7.47808
10 2 0.409624 0.448999 2.6495 2.05164 15.8066 -7.01634
11 1 2.36869 2.37409 6.77678 0.50555 2.38546 -1.84666
12 1 2.06154 0.508956 4.47951 -3.16093 1.97474 1.17315
13 2 2.50328 2.29488 6.39036 -9.23086 6.14794 -2.78575
14 2 2.25964 1.78569 7.01103 -10.0098 -20.0427 0.111555
15 2 2.15069 2.78966 6.69802 3.15801 5.97255 9.41596
16 2 1.88497 3.68177 6.0333 6.05235 1.7096 -0.962136
17 2 2.11461 2.22494 6.92004 -19.1889 11.6249 17.0112
18 2 0.604393 2.1749 2.95223 -9.16333 -1.171 0.523464
19 2 1.53486 0.314158 4.36972 2.11742 -16.8744 5.68394
20 2 -0.0209906 1.87637 2.61151 8.3221 10.6667 10.7917
ITEM: TIMESTEP
1300
ITEM: NUMBER OF ATOMS
20
ITEM: BOX BOUNDS xy xz yz pp pp pp
-2.2530000210000023e+00 4.5059999999999976e+00 -2.2530000210000023e+00
0.0000000000000000e+00 3.9023105058000001e+00 0.0000000000000000e+00
0.0000000000000000e+00 7.3460000000000001e+00 0.0000000000000000e+00
ITEM: ATOMS id type x y z vx vy vz
1 1 -0.238965 2.87391 0.740277 -7.78867 2.5775 -0.0533515
2 1 0.414593 1.80241 3.09297 2.31224 -1.53601 -5.99829
3 2 -0.147832 1.90571 1.13956 7.21432 10.3148 4.38503
4 2 0.753844 1.84224 3.4849 -5.85038 -0.672912 1.9535
5 2 -0.959099 2.02795 6.18875 -6.02043 -18.1006 3.13257
6 2 2.02134 3.68855 0.548761 -21.764 7.63938 -1.267
7 2 2.14533 2.54998 7.0644 2.82157 -1.59111 -29.5225
8 2 0.174548 1.94846 3.41059 6.18663 2.68398 17.5739
9 2 0.572726 1.5056 2.7448 22.2933 -7.86549 0.869395
10 2 0.713503 0.495566 2.49407 -2.05225 7.62988 2.97736
11 1 2.20481 2.43307 6.7882 5.59178 3.10213 -0.133414
12 1 2.07752 0.400181 4.50015 3.51407 -2.34583 2.81087
13 2 2.38306 2.389 6.49742 -22.3271 0.16106 17.4628
14 2 2.4262 2.03804 6.85156 -12.1905 8.73108 12.7933
15 2 2.13847 2.83373 6.67179 4.43185 -17.5458 -1.08754
16 2 2.13667 3.60418 5.73525 -1.12153 -1.11915 1.77609
17 2 1.99404 2.22244 6.98353 10.0733 -14.5463 0.386686
18 2 0.382822 2.24305 3.12842 -3.36054 4.89442 -10.2936
19 2 -0.74839 4.19607 4.41572 -16.1785 8.98622 0.681531
20 2 0.168041 1.99069 2.66367 8.80894 -3.98191 5.17187
ITEM: TIMESTEP
1400
ITEM: NUMBER OF ATOMS
20
ITEM: BOX BOUNDS xy xz yz pp pp pp
-2.2530000210000023e+00 4.5059999999999976e+00 -2.2530000210000023e+00
0.0000000000000000e+00 3.9023105058000001e+00 0.0000000000000000e+00
0.0000000000000000e+00 7.3460000000000001e+00 0.0000000000000000e+00
ITEM: ATOMS id type x y z vx vy vz
1 1 -0.364914 3.01411 0.703654 -2.82979 -1.74477 -3.71037
2 1 0.554561 1.8637 2.96694 3.37793 2.00659 -4.1838
3 2 -0.119372 2.20686 1.28197 7.61433 1.39629 3.85613
4 2 0.616596 2.0293 3.3853 -4.61363 -9.00544 5.09151
5 2 3.26087 1.53394 6.29386 8.31592 -5.10278 -5.89145
6 2 2.24958 3.5076 0.461119 4.06403 5.60407 -20.2218
7 2 2.11049 2.82918 6.92351 -3.85872 -14.5465 4.85151
8 2 0.154074 1.92377 3.14972 -2.9162 5.21301 -7.13537
9 2 0.823827 1.46744 2.91626 -1.00462 -6.74485 -2.27426
10 2 0.978212 0.46332 2.65183 4.62187 14.8197 9.16896
11 1 2.10155 2.3785 6.80977 -7.89992 1.94899 4.73965
12 1 2.10242 0.328157 4.61854 1.27574 0.609849 7.43927
13 2 2.12412 2.23555 6.48339 -13.5967 -1.0608 3.34758
14 2 2.51913 2.31996 6.76571 17.7839 -2.27671 -22.1205
15 2 1.83999 2.37977 6.68742 4.2789 -3.39019 -1.41457
16 2 1.95774 3.29398 5.45215 -8.93678 0.698374 -7.49203
17 2 1.6884 1.94605 6.98713 10.3754 -11.9176 7.21153
18 2 0.899972 2.14415 2.82972 -2.96074 -14.9402 -6.34648
19 2 2.1068 0.58639 5.17482 19.429 23.2733 -3.62472
20 2 0.218565 2.11247 2.76088 10.0123 -4.58496 8.71603
ITEM: TIMESTEP
1500
ITEM: NUMBER OF ATOMS
20
ITEM: BOX BOUNDS xy xz yz pp pp pp
-2.2530000210000023e+00 4.5059999999999976e+00 -2.2530000210000023e+00
0.0000000000000000e+00 3.9023105058000001e+00 0.0000000000000000e+00
0.0000000000000000e+00 7.3460000000000001e+00 0.0000000000000000e+00
ITEM: ATOMS id type x y z vx vy vz
1 1 -0.417566 2.95247 0.752339 -0.36817 -1.97238 2.38386
2 1 0.657581 1.86745 2.93371 6.0647 -2.81155 0.234929
3 2 -0.104965 2.04051 1.19179 -17.5062 -0.74988 1.3982
4 2 0.723032 2.08115 3.34369 2.24869 4.39188 -23.9673
5 2 3.29209 1.7117 6.14619 -17.3785 4.4996 8.64014
6 2 2.06852 3.79154 0.0498733 7.00538 -24.5873 1.46292
7 2 2.40594 2.55594 6.98198 -20.3009 23.0134 4.26768
8 2 0.242327 1.82948 3.016 0.533238 5.33847 -14.8923
9 2 0.937864 1.44778 2.74204 -0.369861 5.69579 6.87167
10 2 0.49991 0.39348 2.95852 -21.2346 -2.58145 1.1208
11 1 2.0188 2.39806 6.86124 5.2924 3.49603 3.71374
12 1 2.09385 0.336705 4.58559 1.58987 -0.676979 -1.33169
13 2 1.9281 2.29508 6.4619 -18.5676 4.14096 -22.5356
14 2 2.3137 2.09558 6.59179 -15.0262 -10.4571 -19.5928
15 2 1.71854 2.64275 6.88145 24.3342 -19.9965 -0.686437
16 2 2.02971 3.32346 5.51822 -8.47392 2.64289 -3.86659
17 2 1.84992 2.00536 7.40088 -4.62952 5.05471 6.64037
18 2 1.08654 2.1478 2.91951 11.0198 0.512469 4.72405
19 2 2.35842 0.654304 5.05589 -7.28248 16.227 12.278
20 2 0.407079 2.20207 2.67321 -15.0019 2.57418 -1.86963
ITEM: TIMESTEP
1600
ITEM: NUMBER OF ATOMS
20
ITEM: BOX BOUNDS xy xz yz pp pp pp
-2.2530000210000023e+00 4.5059999999999976e+00 -2.2530000210000023e+00
0.0000000000000000e+00 3.9023105058000001e+00 0.0000000000000000e+00
0.0000000000000000e+00 7.3460000000000001e+00 0.0000000000000000e+00
ITEM: ATOMS id type x y z vx vy vz
1 1 -0.572351 2.85583 0.785296 -4.34038 -2.94395 -1.78046
2 1 0.740271 1.83667 2.90143 0.61381 -3.28503 -0.824991
3 2 -0.143258 1.99545 1.26023 8.98009 9.03041 -1.49511
4 2 0.897842 2.22761 3.15512 13.5577 -3.70952 -4.42444
5 2 3.44039 1.62047 6.27403 6.30906 -16.4319 -23.9525
6 2 1.99156 3.88379 0.0010494 -10.4471 -18.8466 -7.66297
7 2 2.31183 2.44194 6.95501 43.7492 -11.4064 35.0665
8 2 0.300052 2.00315 3.11619 5.89183 -8.24947 -10.1095
9 2 0.727742 1.33965 2.97868 -8.62332 16.8787 -2.24242
10 2 0.346474 0.401768 3.11006 0.320005 2.46719 8.39683
11 1 2.07446 2.46359 6.78661 -9.90402 7.11254 -1.87837
12 1 2.13842 0.405331 4.62426 2.32519 4.73872 5.69833
13 2 1.78812 2.23201 6.6959 15.5399 -2.81514 -14.2215
14 2 2.25563 2.36129 6.57248 1.88681 -2.84533 22.3787
15 2 1.82511 2.73973 6.79726 23.7636 12.1225 -3.74114
16 2 1.87768 3.66945 5.68448 -13.8291 -2.49082 0.522425
17 2 2.02506 1.90505 7.19497 -3.51813 -5.29348 0.418091
18 2 1.09854 1.72937 2.55326 1.78362 -7.19729 2.69652
19 2 1.97587 0.383244 5.24318 4.68071 -3.9628 -6.86772
20 2 0.812919 2.23013 2.62332 0.398384 -2.22822 -4.47803
ITEM: TIMESTEP
1700
ITEM: NUMBER OF ATOMS
20
ITEM: BOX BOUNDS xy xz yz pp pp pp
-2.2530000210000023e+00 4.5059999999999976e+00 -2.2530000210000023e+00
0.0000000000000000e+00 3.9023105058000001e+00 0.0000000000000000e+00
0.0000000000000000e+00 7.3460000000000001e+00 0.0000000000000000e+00
ITEM: ATOMS id type x y z vx vy vz
1 1 -0.515235 2.84614 0.805161 -1.68265 -0.437862 1.56198
2 1 0.790747 1.75833 2.76453 -0.147593 -1.32257 -1.35767
3 2 0.0640021 2.04703 1.16252 -5.49663 -1.27749 -1.11247
4 2 1.01035 2.05962 2.95687 2.43258 7.84723 -19.9249
5 2 -1.2076 2.00628 6.22461 -16.5547 -3.32165 11.7086
6 2 2.04583 3.66572 0.281048 16.4652 -2.6297 11.8402
7 2 2.26239 2.01093 7.09135 -9.83818 7.15596 0.257307
8 2 0.553527 1.75512 3.07923 10.6161 -2.34165 -5.23588
9 2 0.760259 1.40138 2.81119 -0.309875 7.26314 -10.0318
10 2 0.182663 0.741506 3.73614 -7.28422 1.46293 6.04779
11 1 1.90357 2.53657 6.65059 6.85539 -0.452136 -7.03552
12 1 2.23521 0.458717 4.90309 -0.382671 1.91876 3.88163
13 2 1.6209 2.59032 6.43763 2.61715 -6.91499 5.83623
14 2 2.16532 2.38433 6.506 -5.47051 22.8097 -6.62679
15 2 1.89726 2.65663 7.05181 -15.484 1.56935 10.534
16 2 1.96323 3.27141 5.41726 7.49967 -0.770614 -3.02417
17 2 1.64615 2.33026 6.79191 -25.0147 -0.13187 20.4705
18 2 1.13045 1.7703 2.53267 -7.71951 -12.0883 -1.99928
19 2 2.05452 0.215713 5.40812 6.51062 -14.6819 8.48647
20 2 0.608369 1.95085 2.52064 9.89121 -1.59973 -3.62918
ITEM: TIMESTEP
1800
ITEM: NUMBER OF ATOMS
20
ITEM: BOX BOUNDS xy xz yz pp pp pp
-2.2530000210000023e+00 4.5059999999999976e+00 -2.2530000210000023e+00
0.0000000000000000e+00 3.9023105058000001e+00 0.0000000000000000e+00
0.0000000000000000e+00 7.3460000000000001e+00 0.0000000000000000e+00
ITEM: ATOMS id type x y z vx vy vz
1 1 -0.643442 2.80434 0.944718 -3.82687 -1.93885 2.38168
2 1 0.889823 1.77322 2.64581 3.97577 0.693477 0.844248
3 2 0.0146258 2.04786 1.10225 -7.64235 -7.38884 7.91221
4 2 1.31418 1.94855 2.60116 11.8184 1.05673 6.51739
5 2 -1.39052 1.45831 6.48083 -11.3947 -2.70434 -10.325
6 2 1.92571 3.60712 0.482276 -16.4475 5.67835 1.0184
7 2 2.12333 1.98757 6.84747 23.3371 -4.35755 6.72977
8 2 0.66022 1.99239 3.10423 -5.36561 -12.6954 -8.54599
9 2 0.80999 1.25857 2.65674 -2.65395 20.3499 4.43339
10 2 0.0126347 1.05564 3.63385 18.7464 10.8117 14.542
11 1 1.97674 2.58322 6.75302 1.1933 3.35395 -2.09349
12 1 2.08649 0.406401 4.87561 -2.35952 -2.92618 -4.66154
13 2 1.72462 2.53158 6.41238 26.2944 -20.1339 0.966792
14 2 2.36496 2.68779 6.59582 17.4298 8.77818 0.831009
15 2 2.11149 2.92361 6.98691 -4.00932 15.2285 3.2391
16 2 2.21998 3.25742 5.36179 -13.8564 -5.9582 4.4418
17 2 1.56993 2.46696 6.83309 -27.1973 -5.28635 -5.98012
18 2 1.23432 1.58203 2.38134 -2.06994 0.941472 -6.4168
19 2 2.20468 0.14834 5.42745 -1.1185 -0.827759 -5.71963
20 2 0.694984 2.16427 2.33521 2.26777 3.04844 14.5885
ITEM: TIMESTEP
1900
ITEM: NUMBER OF ATOMS
20
ITEM: BOX BOUNDS xy xz yz pp pp pp
-2.2530000210000023e+00 4.5059999999999976e+00 -2.2530000210000023e+00
0.0000000000000000e+00 3.9023105058000001e+00 0.0000000000000000e+00
0.0000000000000000e+00 7.3460000000000001e+00 0.0000000000000000e+00
ITEM: ATOMS id type x y z vx vy vz
1 1 -0.710877 2.83775 1.00349 0.384185 2.56011 0.504674
2 1 1.07285 1.86946 2.73455 3.33345 2.62777 1.38992
3 2 0.139935 2.29794 1.15027 -11.5217 0.23646 8.69696
4 2 1.39531 2.12207 2.87074 -4.56138 3.56364 -7.3395
5 2 -1.33777 1.68043 6.41646 -0.680065 0.0668022 -10.336
6 2 1.73622 3.17227 0.762123 4.95302 -1.81114 2.05007
7 2 2.29311 1.80082 6.83721 1.41049 -33.5116 -0.292383
8 2 0.764241 2.04943 3.05215 3.06121 8.57421 -8.35935
9 2 0.917699 1.46051 2.63124 0.782019 7.0444 -0.846107
10 2 0.0930233 1.20983 3.62717 17.8598 -3.50549 -9.00145
11 1 1.92345 2.4886 6.65543 0.460695 8.58259 2.27248
12 1 2.00884 0.3628 4.83987 -2.59887 -1.25078 2.78523
13 2 1.50124 2.46629 6.50464 -19.8337 -18.8169 -7.69561
14 2 1.9851 2.81673 6.28379 -7.9026 -21.907 -15.8131
15 2 1.90774 2.86269 6.77109 3.76501 -15.0291 -9.15827
16 2 1.86176 2.75707 5.07109 4.37242 -11.8952 3.12708
17 2 1.80959 2.53308 6.9462 -5.898 -8.10007 -15.151
18 2 1.28138 1.67966 2.35556 -6.91112 8.4902 7.48649
19 2 2.22721 0.0360029 5.36275 1.46644 -13.8623 7.49842
20 2 1.1421 2.24179 2.4867 7.00251 0.305467 -0.484721
ITEM: TIMESTEP
2000
ITEM: NUMBER OF ATOMS
20
ITEM: BOX BOUNDS xy xz yz pp pp pp
-2.2530000210000023e+00 4.5059999999999976e+00 -2.2530000210000023e+00
0.0000000000000000e+00 3.9023105058000001e+00 0.0000000000000000e+00
0.0000000000000000e+00 7.3460000000000001e+00 0.0000000000000000e+00
ITEM: ATOMS id type x y z vx vy vz
1 1 -0.663231 2.88553 0.836328 1.94366 2.42243 0.21949
2 1 1.17031 2.06152 2.65679 1.74452 4.07224 -0.989912
3 2 -0.0148074 2.27428 1.3423 -3.38869 -11.3814 -5.9071
4 2 1.46393 2.26655 2.71416 -5.80431 1.20639 -1.20961
5 2 3.21687 1.53407 6.71141 -20.4521 7.53649 8.05172
6 2 1.46465 3.41068 0.618522 19.3579 -12.5359 -5.22142
7 2 1.69036 1.99069 6.93568 -9.02646 20.2282 33.0481
8 2 0.866872 2.22375 2.95341 1.21343 -12.5303 7.99343
9 2 1.02227 1.67716 2.71024 4.47538 -0.86193 1.75419
10 2 0.0318866 1.34618 3.32647 -7.01577 16.901 1.52586
11 1 1.88287 2.40318 6.76519 -3.77501 -8.93644 -0.762861
12 1 1.97007 0.218328 4.91373 1.40068 1.06655 -2.67379
13 2 1.82716 2.06917 6.35792 5.06741 -3.2422 -23.126
14 2 1.85418 2.54527 6.20156 18.6715 0.319678 3.88013
15 2 2.09963 2.82362 6.91465 -5.08668 -0.0119947 -2.56662
16 2 1.52604 2.30629 5.20431 -10.0757 -11.7044 -1.81462
17 2 1.95028 2.32947 7.25225 1.58613 2.30516 12.2608
18 2 1.43864 1.91015 2.48049 -7.85645 6.56738 6.0309
19 2 -0.20351 3.95714 5.52663 -6.09131 7.34312 6.76316
20 2 1.21039 2.34486 2.36971 13.9149 0.862417 -7.80633
ITEM: TIMESTEP
2100
ITEM: NUMBER OF ATOMS
20
ITEM: BOX BOUNDS xy xz yz pp pp pp
-2.2530000210000023e+00 4.5059999999999976e+00 -2.2530000210000023e+00
0.0000000000000000e+00 3.9023105058000001e+00 0.0000000000000000e+00